 DBCSR| Multiplication driver                                               XSMM
 DBCSR| Multrec recursion limit                                              512
 DBCSR| Multiplication stack size                                           1000
 DBCSR| Maximum elements for images                                    UNLIMITED
 DBCSR| Multiplicative factor virtual images                                   1
 DBCSR| Multiplication size stacks                                             3
 DBCSR| Number of 3D layers                                               SINGLE
 DBCSR| Use MPI memory allocation                                              T
 DBCSR| Use RMA algorithm                                                      F
 DBCSR| Use Communication thread                                               T
 DBCSR| Communication thread load                                             87


  **** **** ******  **  PROGRAM STARTED AT               2019-06-13 18:31:48.003
 ***** ** ***  *** **   PROGRAM STARTED ON                              nid00363
 **    ****   ******    PROGRAM STARTED BY                              dmorozov
 ***** **    ** ** **   PROGRAM PROCESS ID                                  4877
  **** **  *******  **  PROGRAM STARTED IN            /wrk/dmorozov/cp2k/protein

 CP2K| version string:                                          CP2K version 6.1
 CP2K| source code revision number:                                    svn:18464
 CP2K| cp2kflags: libint fftw3 libxc elpa=201605 elpa_qr parallel mpi3 scalapack
 CP2K|             xsmm has_no_shared_glibc plumed2
 CP2K| is freely available from                            https://www.cp2k.org/
 CP2K| Program compiled at                         Fri Jun 15 12:47:08 EEST 2018
 CP2K| Program compiled on                                              nid00390
 CP2K| Program compiled for                                           sisu_elpaU
 CP2K| Data directory path                     /appl/chem/cp2k/6.1/cp2k-6.1/data
 CP2K| Input file name                                         init-opt-qmmm.inp

 GLOBAL| Force Environment number                                              1
 GLOBAL| Basis set file name                                        BASIS_MOLOPT
 GLOBAL| Potential file name                                           POTENTIAL
 GLOBAL| MM Potential file name                                     MM_POTENTIAL
 GLOBAL| Coordinate file name                                      init_qmmm.pdb
 GLOBAL| Method name                                                        CP2K
 GLOBAL| Project name                                              init-opt-qmmm
 GLOBAL| Preferred FFT library                                             FFTW3
 GLOBAL| Preferred diagonalization lib.                                       SL
 GLOBAL| Run type                                                   ENERGY_FORCE
 GLOBAL| All-to-all communication in single precision                          F
 GLOBAL| FFTs using library dependent lengths                                  F
 GLOBAL| Global print level                                                  LOW
 GLOBAL| Total number of message passing processes                            48
 GLOBAL| Number of threads for this process                                    1
 GLOBAL| This output is from process                                           0
 GLOBAL| CPU model name :  Intel(R) Xeon(R) CPU E5-2690 v3 @ 2.60GHz

 MEMORY| system memory details [Kb]
 MEMORY|                        rank 0           min           max       average
 MEMORY| MemTotal             65975120      65975120      65975120      65975120
 MEMORY| MemFree              61464008      61464008      61495916      61479962
 MEMORY| Buffers                     0             0             0             0
 MEMORY| Cached                 193420        192764        193420        193092
 MEMORY| Slab                   249968        248120        249968        249044
 MEMORY| SReclaimable             7604          7424          7604          7514
 MEMORY| MemLikelyFree        61665032      61665032      61696104      61680568



                      ************* ******** ***********   
                     ************* **********************  
                     ****     **** ****      ***********   
                     ******** ****  *******     ****       
                     *******  ****   *******   ****        
                     ****     ****       ****  ****        
                     ****     **** **********  ****        
                      ****     **** ********    ****       
                     FRONTIERS IN SIMULATION TECHNOLOGY    
                                                           
                        C.J. Mundy, S. Balasubramanian,    
                     Ken Bagchi, J. Hutter, Ari Seitsonen  
                      IFW Kuo, T. Laino, J. VandeVondele   
                                 Version 1.0               

                                                           


 EWALD| Summation is done by:                                               SPME
 EWALD| Alpha parameter [       ANGSTROM^-1]                              0.4000
 EWALD| Real Space Cutoff [          ANGSTROM]                            8.4348
 EWALD| G-space max. Miller index                         80        80        80
 EWALD| Spline interpolation order                                             6

 FORCEFIELD| WARNING: A non Critical ForceField parameter is missing! CP2K GOES!
 FORCEFIELD| Non critical parameters are:Urey-Bradley,Torsions,Impropers, Opbends and 1-4
 FORCEFIELD| All missing parameters will not contribute to the potential energy!
 FORCEFIELD| Activate the print key FF_INFO to have a list of missing parameters

 CHARGE_INFO| Total Charge of the Classical System:                    -0.825808

 SPLINE_INFO| Generating 101926 splines for NONBONDED14 interactions 
              Due to 451 different atomic kinds
  ...10192  ...20384  ...30576  ...40768  ...50960  ...61152  ...71344  ...81536  ...91728  ...101920
 SPLINE_INFO| Number of unique splines computed:            301
 SPLINE_INFO| Done

 SPLINE_INFO| Generating 101926 splines for NONBONDED interactions 
              Due to 451 different atomic kinds
  ...10192  ...20384  ...30576  ...40768  ...50960  ...61152  ...71344  ...81536  ...91728  ...101920
 SPLINE_INFO| Number of unique splines computed:            301
 SPLINE_INFO| Done

 *******************************************************************************
 *******************************************************************************
 **                                                                           **
 **     #####                         ##              ##                      **
 **    ##   ##            ##          ##              ##                      **
 **   ##     ##                       ##            ######                    **
 **   ##     ##  ##   ##  ##   #####  ##  ##   ####   ##    #####    #####    **
 **   ##     ##  ##   ##  ##  ##      ## ##   ##      ##   ##   ##  ##   ##   **
 **   ##  ## ##  ##   ##  ##  ##      ####     ###    ##   ######   ######    **
 **    ##  ###   ##   ##  ##  ##      ## ##      ##   ##   ##       ##        **
 **     #######   #####   ##   #####  ##  ##  ####    ##    #####   ##        **
 **           ##                                                    ##        **
 **                                                                           **
 **                                                ... make the atoms dance   **
 **                                                                           **
 **            Copyright (C) by CP2K developers group (2000 - 2018)           **
 **                                                                           **
 *******************************************************************************


 TOTAL NUMBERS AND MAXIMUM NUMBERS

  Total number of            - Atomic kinds:                                   5
                             - Atoms:                                         68
                             - Shell sets:                                    68
                             - Shells:                                       274
                             - Primitive Cartesian functions:                476
                             - Cartesian basis functions:                    655
                             - Spherical basis functions:                    620

  Maximum angular momentum of- Orbital basis functions:                        2
                             - Local part of the GTH pseudopotential:          2
                             - Non-local part of the GTH pseudopotential:      0


 SCF PARAMETERS         Density guess:                                   RESTART
                        --------------------------------------------------------
                        max_scf:                                             300
                        max_scf_history:                                       0
                        max_diis:                                              4
                        --------------------------------------------------------
                        eps_scf:                                        1.00E-06
                        eps_scf_history:                                0.00E+00
                        eps_diis:                                       1.00E-01
                        eps_eigval:                                     1.00E-05
                        --------------------------------------------------------
                        level_shift [a.u.]:                                 0.00
                        --------------------------------------------------------
                        No outer SCF

 *******************************************************************************
 *******************************************************************************
 **                                                                           **
 **             #######  ##     ## ##     ## ##     ##                        **
 **            ##     ## ###   ### ###   ### ###   ###                        **
 **            ##     ## #### #### #### #### #### ####                        **
 **            ##     ## ## ### ## ## ### ## ## ### ##                        **
 **            ##  ## ## ##     ## ##     ## ##     ##                        **
 **            ##    ##  ##     ## ##     ## ##     ##  T.Laino and F.Mohamed **
 **             ##### ## ##     ## ##     ## ##     ##  2005 - 2015           **
 **                                                                           **
 **                                                     Calculation Started.. **
 *******************************************************************************
 *******************************************************************************

  Translating the system in order to center the QM fragment in the QM box.

 Number of electrons:                                                        180
 Number of occupied orbitals:                                                 90
 Number of molecular orbitals:                                                90

 Number of orbital functions:                                                620
 Number of independent orbital functions:                                    620

 Extrapolation method: initial_guess


 SCF WAVEFUNCTION OPTIMIZATION

  ----------------------------------- OT ---------------------------------------
  Minimizer      : DIIS                : direct inversion
                                         in the iterative subspace
                                         using   7 DIIS vectors
                                         safer DIIS on
  Preconditioner : FULL_ALL            : diagonalization, state selective
  Precond_solver : DEFAULT
  stepsize       :    0.15000000                  energy_gap     :    0.08000000
  eps_taylor     :   0.10000E-15                  max_taylor     :             4
  ----------------------------------- OT ---------------------------------------

  Step     Update method      Time    Convergence         Total energy    Change
  ------------------------------------------------------------------------------
  Decoupling Energy:                                               0.0370859520
  Recoupling Energy:                                              -0.0063743230
     1 OT DIIS     0.15E+00    2.1     0.00000055      -256.0303954176 -2.56E+02

  *** SCF run converged in     1 steps ***


  Electronic density on regular grids:       -179.9999999994        0.0000000006
  Core density on regular grids:              180.9999999999       -0.0000000001
  Total charge density on r-space grids:        1.0000000005
  Total charge density g-space grids:           1.0000000005

  Overlap energy of the core charge distribution:               0.00001951532734
  Self energy of the core charge distribution:               -615.71576003586028
  Core Hamiltonian energy:                                    191.69816349342000
  Hartree energy:                                             247.57403701641948
  Exchange-correlation energy:                                -79.63275773553755
  QM/MM Electrostatic energy:                                   0.04590232860498

  Total energy:                                              -256.03039541762598
  Decoupling Energy:                                               0.0370859583
  Recoupling Energy:                                              -0.0063743231

 ENERGY| Total FORCE_EVAL ( QMMM ) energy (a.u.):          -1095.757597128995258


 -------------------------------------------------------------------------------
 -                                                                             -
 -                                DBCSR STATISTICS                             -
 -                                                                             -
 -------------------------------------------------------------------------------
 COUNTER                                    TOTAL       BLAS       SMM       ACC
 flops    26 x    26 x    26                35152       0.0%    100.0%      0.0%
 flops    26 x    26 x    32                86528       0.0%    100.0%      0.0%
 flops    26 x    32 x    26                86528       0.0%    100.0%      0.0%
 flops    32 x    26 x    26                86528       0.0%    100.0%      0.0%
 flops    32 x    32 x    26               212992       0.0%    100.0%      0.0%
 flops    26 x    32 x    32               212992       0.0%    100.0%      0.0%
 flops    32 x    26 x    32               212992       0.0%    100.0%      0.0%
 flops     5 x    26 x    26               223080       0.0%    100.0%      0.0%
 flops    26 x    26 x    41               277160       0.0%    100.0%      0.0%
 flops    32 x    32 x    32               524288       0.0%    100.0%      0.0%
 flops    13 x    26 x    26               615160       0.0%    100.0%      0.0%
 flops     5 x    32 x    32               675840       0.0%    100.0%      0.0%
 flops    26 x    32 x    41               682240       0.0%    100.0%      0.0%
 flops    32 x    26 x    41               682240       0.0%    100.0%      0.0%
 flops    26 x    26 x    49               993720       0.0%    100.0%      0.0%
 flops   149 x    26 x    26              1007240       0.0%    100.0%      0.0%
 flops   152 x    26 x    26              1027520       0.0%    100.0%      0.0%
 flops   157 x    26 x    26              1061320       0.0%    100.0%      0.0%
 flops   162 x    26 x    26              1095120       0.0%    100.0%      0.0%
 flops   149 x    26 x    41              1270672       0.0%    100.0%      0.0%
 flops   152 x    26 x    41              1296256       0.0%    100.0%      0.0%
 flops   157 x    26 x    41              1338896       0.0%    100.0%      0.0%
 flops   162 x    26 x    41              1381536       0.0%    100.0%      0.0%
 flops    32 x    32 x    41              1679360       0.0%    100.0%      0.0%
 flops    13 x    32 x    32              1863680       0.0%    100.0%      0.0%
 flops     5 x     5 x    26              2187900       0.0%    100.0%      0.0%
 flops    26 x    32 x    49              2446080       0.0%    100.0%      0.0%
 flops    32 x    26 x    49              2446080       0.0%    100.0%      0.0%
 flops   149 x    32 x    26              2479360       0.0%    100.0%      0.0%
 flops   149 x    26 x    32              2479360       0.0%    100.0%      0.0%
 flops   152 x    26 x    32              2529280       0.0%    100.0%      0.0%
 flops   152 x    32 x    26              2529280       0.0%    100.0%      0.0%
 flops   157 x    26 x    32              2612480       0.0%    100.0%      0.0%
 flops   157 x    32 x    26              2612480       0.0%    100.0%      0.0%
 flops   162 x    26 x    32              2695680       0.0%    100.0%      0.0%
 flops   162 x    32 x    26              2695680       0.0%    100.0%      0.0%
 flops    26 x    26 x    54              2920320       0.0%    100.0%      0.0%
 flops   149 x    32 x    41              3127808       0.0%    100.0%      0.0%
 flops   152 x    32 x    41              3190784       0.0%    100.0%      0.0%
 flops   157 x    32 x    41              3295744       0.0%    100.0%      0.0%
 flops   162 x    32 x    41              3400704       0.0%    100.0%      0.0%
 flops   149 x    26 x    49              4555824       0.0%    100.0%      0.0%
 flops   152 x    26 x    49              4647552       0.0%    100.0%      0.0%
 flops   157 x    26 x    49              4800432       0.0%    100.0%      0.0%
 flops   162 x    26 x    49              4953312       0.0%    100.0%      0.0%
 flops     5 x     5 x    32              5385600       0.0%    100.0%      0.0%
 flops    13 x     5 x    26              5850780       0.0%    100.0%      0.0%
 flops     5 x    13 x    26              5860920       0.0%    100.0%      0.0%
 flops    32 x    32 x    49              6021120       0.0%    100.0%      0.0%
 flops   149 x    32 x    32              6103040       0.0%    100.0%      0.0%
 flops   152 x    32 x    32              6225920       0.0%    100.0%      0.0%
 flops   157 x    32 x    32              6430720       0.0%    100.0%      0.0%
 flops   162 x    32 x    32              6635520       0.0%    100.0%      0.0%
 flops    26 x    32 x    54              7188480       0.0%    100.0%      0.0%
 flops    32 x    26 x    54              7188480       0.0%    100.0%      0.0%
 flops   149 x    32 x    49             11214336       0.0%    100.0%      0.0%
 flops   152 x    32 x    49             11440128       0.0%    100.0%      0.0%
 flops   157 x    32 x    49             11816448       0.0%    100.0%      0.0%
 flops   162 x    32 x    49             12192768       0.0%    100.0%      0.0%
 flops     5 x    26 x     5             12741300       0.0%    100.0%      0.0%
 flops   149 x    26 x    54             13388544       0.0%    100.0%      0.0%
 flops   152 x    26 x    54             13658112       0.0%    100.0%      0.0%
 flops   157 x    26 x    54             14107392       0.0%    100.0%      0.0%
 flops    13 x     5 x    32             14401920       0.0%    100.0%      0.0%
 flops     5 x    13 x    32             14426880       0.0%    100.0%      0.0%
 flops   162 x    26 x    54             14556672       0.0%    100.0%      0.0%
 flops    13 x    13 x    26             16609320       0.0%    100.0%      0.0%
 flops    32 x    32 x    54             17694720       0.0%    100.0%      0.0%
 flops     5 x    32 x     5             31363200       0.0%    100.0%      0.0%
 flops   149 x    32 x    54             32956416       0.0%    100.0%      0.0%
 flops   152 x    32 x    54             33619968       0.0%    100.0%      0.0%
 flops   157 x    32 x    54             34725888       0.0%    100.0%      0.0%
 flops     5 x    26 x    13             35135100       0.0%    100.0%      0.0%
 flops    13 x    26 x     5             35135100       0.0%    100.0%      0.0%
 flops   162 x    32 x    54             35831808       0.0%    100.0%      0.0%
 flops    13 x    13 x    32             40884480       0.0%    100.0%      0.0%
 flops    13 x    32 x     5             86486400       0.0%    100.0%      0.0%
 flops     5 x    32 x    13             86486400       0.0%    100.0%      0.0%
 flops    13 x    26 x    13             96887700       0.0%    100.0%      0.0%
 flops    13 x    32 x    13            238492800       0.0%    100.0%      0.0%
 flops inhomo. stacks                           0       0.0%      0.0%      0.0%
 flops total                         1.110380E+09       0.0%    100.0%      0.0%
 flops max/rank                     97.294916E+06       0.0%    100.0%      0.0%
 matmuls inhomo. stacks                         0       0.0%      0.0%      0.0%
 matmuls total                             147489       0.0%    100.0%      0.0%
 number of processed stacks                  8259       0.0%    100.0%      0.0%
 average stack size                                     0.0      17.9       0.0
 marketing flops                     1.229058E+09
 -------------------------------------------------------------------------------
 # multiplications                             29
 max memory usage/rank              29.466624E+06
 # max total images/rank                        3
 # max 3D layers                                1
 # MPI messages exchanged                   61248
 MPI messages size (bytes):
  total size                       616.846912E+06
  min size                           0.000000E+00
  max size                          69.984000E+03
  average size                      10.071299E+03
 MPI breakdown and total messages size (bytes):
             size <=      128               42174                        0
       128 < size <=     8192                 726                  5229312
      8192 < size <=    32768               10593                137101536
     32768 < size <=   131072                7755                474516064
    131072 < size <=  4194304                   0                        0
   4194304 < size <= 16777216                   0                        0
  16777216 < size                               0                        0
 -------------------------------------------------------------------------------

 *** WARNING in dbcsr/mm/dbcsr_mm.F:268 :: Using a non-square number of ***
 *** MPI ranks might lead to poor performance.                          ***
 *** Used ranks: 48                                                     ***
 *** Suggested: 49 100                                                  ***

 -------------------------------------------------------------------------------

 MEMORY| Estimated peak process memory [MiB]                                  29

 -------------------------------------------------------------------------------
 -                                                                             -
 -                         MESSAGE PASSING PERFORMANCE                         -
 -                                                                             -
 -------------------------------------------------------------------------------

 ROUTINE             CALLS      AVE VOLUME [Bytes]
 MP_Group               23
 MP_Bcast             6726               10946229.
 MP_Allreduce          586                 993252.
 MP_Sync                 9
 MP_Alltoall           384                2893781.
 MP_ISendRecv          376                  57600.
 MP_Wait              3989
 MP_comm_split           3
 MP_ISend             3049                  64155.
 MP_IRecv             3032                  64073.
 MP_Recv                11                  39680.
 MP_Memory            2070
 -------------------------------------------------------------------------------


 -------------------------------------------------------------------------------
 -                                                                             -
 -                           R E F E R E N C E S                               -
 -                                                                             -
 -------------------------------------------------------------------------------
 
 CP2K version 6.1, the CP2K developers group (2018).
 CP2K is freely available from https://www.cp2k.org/ .

 Schuett, Ole; Messmer, Peter; Hutter, Juerg; VandeVondele, Joost. 
 Electronic Structure Calculations on Graphics Processing Units, John Wiley & Sons, Ltd, 173-190 (2016). 
 GPU-Accelerated Sparse Matrix-Matrix Multiplication for Linear Scaling Density Functional Theory.
 http://dx.doi.org/10.1002/9781118670712.ch8


 Borstnik, U; VandeVondele, J; Weber, V; Hutter, J. 
 PARALLEL COMPUTING, 40 (5-6), 47-58 (2014). 
 Sparse matrix multiplication: The distributed block-compressed sparse
 row library.
 http://dx.doi.org/10.1016/j.parco.2014.03.012


 Hutter, J; Iannuzzi, M; Schiffmann, F; VandeVondele, J. 
 WILEY INTERDISCIPLINARY REVIEWS-COMPUTATIONAL MOLECULAR SCIENCE, 4 (1), 15-25 (2014). 
 CP2K: atomistic simulations of condensed matter systems.
 http://dx.doi.org/10.1002/wcms.1159


 VandeVondele, J; Hutter, J. 
 JOURNAL OF CHEMICAL PHYSICS, 127 (11), 114105 (2007). 
 Gaussian basis sets for accurate calculations on molecular systems in
 gas and condensed phases.
 http://dx.doi.org/10.1063/1.2770708


 Laino, T; Mohamed, F; Laio, A; Parrinello, M. 
 JOURNAL OF CHEMICAL THEORY AND COMPUTATION, 2 (5), 1370-1378 (2006). 
 An efficient linear-scaling electrostatic coupling for treating
 periodic boundary conditions in QM/MM simulations.
 http://dx.doi.org/10.1021/ct6001169


 Laino, T; Mohamed, F; Laio, A; Parrinello, M. 
 JOURNAL OF CHEMICAL THEORY AND COMPUTATION, 1 (6), 1176-1184 (2005). 
 An efficient real space multigrid QM/MM electrostatic coupling.
 http://dx.doi.org/10.1021/ct050123f


 Krack, M. 
 THEORETICAL CHEMISTRY ACCOUNTS, 114 (1-3), 145-152 (2005). 
 Pseudopotentials for H to Kr optimized for gradient-corrected
 exchange-correlation functionals.
 http://dx.doi.org/10.1007/s00214-005-0655-y


 VandeVondele, J; Krack, M; Mohamed, F; Parrinello, M; Chassaing, T;
 Hutter, J. COMPUTER PHYSICS COMMUNICATIONS, 167 (2), 103-128 (2005). 
 QUICKSTEP: Fast and accurate density functional calculations using a
 mixed Gaussian and plane waves approach.
 http://dx.doi.org/10.1016/j.cpc.2004.12.014


 Frigo, M; Johnson, SG. 
 PROCEEDINGS OF THE IEEE, 93 (2), 216-231 (2005). 
 The design and implementation of FFTW3.
 http://dx.doi.org/10.1109/JPROC.2004.840301


 VandeVondele, J; Hutter, J. 
 JOURNAL OF CHEMICAL PHYSICS, 118 (10), 4365-4369 (2003). 
 An efficient orbital transformation method for electronic structure
 calculations.
 http://dx.doi.org/10.1063/1.1543154


 Hartwigsen, C; Goedecker, S; Hutter, J. 
 PHYSICAL REVIEW B, 58 (7), 3641-3662 (1998). 
 Relativistic separable dual-space Gaussian pseudopotentials from H to Rn.
 http://dx.doi.org/10.1103/PhysRevB.58.3641


 Lippert, G; Hutter, J; Parrinello, M. 
 MOLECULAR PHYSICS, 92 (3), 477-487 (1997). 
 A hybrid Gaussian and plane wave density functional scheme.
 http://dx.doi.org/10.1080/002689797170220


 Perdew, JP; Burke, K; Ernzerhof, M. 
 PHYSICAL REVIEW LETTERS, 77 (18), 3865-3868 (1996). 
 Generalized gradient approximation made simple.
 http://dx.doi.org/10.1103/PhysRevLett.77.3865


 Goedecker, S; Teter, M; Hutter, J. 
 PHYSICAL REVIEW B, 54 (3), 1703-1710 (1996). 
 Separable dual-space Gaussian pseudopotentials.
 http://dx.doi.org/10.1103/PhysRevB.54.1703


 ESSMANN, U; PERERA, L; BERKOWITZ, ML; DARDEN, T; LEE, H; PEDERSEN, LG. 
 JOURNAL OF CHEMICAL PHYSICS, 103 (19), 8577-8593 (1995). 
 A SMOOTH PARTICLE MESH EWALD METHOD.
 http://dx.doi.org/10.1063/1.470117


 BLOCHL, PE. 
 JOURNAL OF CHEMICAL PHYSICS, 103 (17), 7422-7428 (1995). 
 ELECTROSTATIC DECOUPLING OF PERIODIC IMAGES OF PLANE-WAVE-EXPANDED
 DENSITIES AND DERIVED ATOMIC POINT CHARGES.
 http://dx.doi.org/10.1063/1.470314


 -------------------------------------------------------------------------------
 -                                                                             -
 -                                T I M I N G                                  -
 -                                                                             -
 -------------------------------------------------------------------------------
 SUBROUTINE                       CALLS  ASD         SELF TIME        TOTAL TIME
                                MAXIMUM       AVERAGE  MAXIMUM  AVERAGE  MAXIMUM
 CP2K                                 1  1.0    0.227    0.259  123.366  123.367
 qmmm_env_create                      1  2.0   12.987   13.368   54.251   54.254
 qmmm_forces                          1  2.0    0.012    0.013   38.206   38.207
 qmmm_forces_with_gaussian            1  3.0    0.010    0.011   37.378   38.062
 fist_init                            1  3.0    0.000    0.000   35.534   35.536
 qmmm_force_with_gaussian_low         1  4.0    0.000    0.000   30.349   30.982
 qmmm_forces_gaussian_low_R           1  5.0    0.000    0.000   28.033   28.062
 qmmm_forces_with_gaussian_LG         1  6.0   28.033   28.062   28.033   28.062
 qmmm_el_coupling                     1  2.0    0.000    0.000   22.943   23.112
 qmmm_elec_with_gaussian              1  3.0    0.004    0.006   22.940   23.109
 force_field_control                  1  4.0    0.000    0.001   21.347   21.405
 qmmm_elec_with_gaussian_low          1  4.0    0.000    0.000   16.600   16.955
 rdparm_amber_8                       2  6.5   11.847   12.352   15.104   15.127
 force_field_pack                     1  5.0    0.017    0.018   14.431   14.489
 topology_control                     1  4.0    0.000    0.000   14.102   14.165
 qmmm_elec_gaussian_low_R             1  5.0    0.000    0.000   13.895   13.910
 qmmm_elec_with_gaussian_LG           1  6.0   13.895   13.910   13.895   13.910
 connectivity_control                 2  4.0    0.000    0.000    8.504    8.538
 force_field_pack_splines             2  6.0    0.018    0.019    8.304    8.353
 read_connectivity_amber              1  6.0    0.000    0.000    8.316    8.332
 get_nonbond_storage                  2  7.0    0.246    0.252    7.985    8.039
 set_potparm_index                  602  8.0    0.331    0.345    7.739    7.791
 init_genpot                        604  9.0    7.431    7.478    7.431    7.478
 read_force_field_amber               1  5.0    0.011    0.014    6.799    6.826
 pw_restrict_s3                       3  4.0    4.736    4.801    6.503    6.592
 mp_sum_dm3                           8  4.0    6.000    6.272    6.000    6.272
 qs_forces                            1  2.0    0.000    0.000    5.900    5.900
 qmmm_elec_with_gaussian:spline       1  4.0    0.000    0.000    4.840    5.008
 pw_prolongate_s3                     3  5.0    3.437    3.509    4.840    5.008
 eval_pw_TabLR                        3  3.0    0.615    4.864    4.949    4.953
 rebuild_ks_matrix                    2  5.5    0.000    0.000    4.010    4.011
 qs_ks_build_kohn_sham_matrix         2  6.5    0.000    0.001    4.010    4.011
 qs_energies                          1  3.0    0.000    0.000    3.804    3.804
 topology_coordinate_pack             2  4.0    0.000    0.001    3.572    3.599
 topology_coordinate_pack_11          2  5.0    3.351    3.357    3.351    3.357
 qmmm_elec_gaussian_low_G             1  5.0    2.705    3.077    2.705    3.077
 parser_read_line                924902  7.6    0.448    0.496    3.007    3.059
 pw_transfer                         51  8.5    0.003    0.004    2.819    3.003
 fft_wrap_pw1pw2                     40  9.9    0.000    0.000    2.775    2.959
 qmmm_forces_gaussian_low_G           1  5.0    2.316    2.958    2.316    2.958
 fft_wrap_pw1pw2_200                 24 11.3    0.207    0.226    2.707    2.893
 scf_env_do_scf                       1  4.0    0.000    0.000    2.815    2.815
 parser_read_line_low               933  8.5    0.167    1.378    2.558    2.614
 force_field_pack_tors                1  6.0    2.563    2.574    2.563    2.574
 broadcast_input_information        933  9.5    0.006    0.006    2.391    2.477
 -------------------------------------------------------------------------------

 The number of warnings for this run is : 1
 
 -------------------------------------------------------------------------------
  **** **** ******  **  PROGRAM ENDED AT                 2019-06-13 18:33:51.475
 ***** ** ***  *** **   PROGRAM RAN ON                                  nid00363
 **    ****   ******    PROGRAM RAN BY                                  dmorozov
 ***** **    ** ** **   PROGRAM PROCESS ID                                  4877
  **** **  *******  **  PROGRAM STOPPED IN            /wrk/dmorozov/cp2k/protein
Application 8653173 resources: utime ~5872s, stime ~65s, Rss ~31328, inblocks ~435870, outblocks ~490218
