 DBCSR| Multiplication driver                                               XSMM
 DBCSR| Multrec recursion limit                                              512
 DBCSR| Multiplication stack size                                           1000
 DBCSR| Maximum elements for images                                    UNLIMITED
 DBCSR| Multiplicative factor virtual images                                   1
 DBCSR| Multiplication size stacks                                             3
 DBCSR| Number of 3D layers                                               SINGLE
 DBCSR| Use MPI memory allocation                                              T
 DBCSR| Use RMA algorithm                                                      F
 DBCSR| Use Communication thread                                               T
 DBCSR| Communication thread load                                             87


  **** **** ******  **  PROGRAM STARTED AT               2019-07-23 15:49:28.537
 ***** ** ***  *** **   PROGRAM STARTED ON                              nid04360
 **    ****   ******    PROGRAM STARTED BY                               aproeme
 ***** **    ** ** **   PROGRAM PROCESS ID                                 20037
  **** **  *******  **  PROGRAM STARTED IN /fs3/z01/z01/aproeme/bioexcel/qmmm-JY
                                           U/profile/1node_24procs

 CP2K| version string:                                          CP2K version 6.1
 CP2K| source code revision number:                                    svn:18464
 CP2K| cp2kflags: omp libint fftw3 libxc elpa=201505 elpa_qr parallel mpi3 scala
 CP2K|            pack xsmm libgrid has_no_shared_glibc max_contr=4 statm_resident plumed2
 CP2K| is freely available from                            https://www.cp2k.org/
 CP2K| Program compiled at                          Fri Jul  5 11:02:35 BST 2019
 CP2K| Program compiled on                                            eslogin005
 CP2K| Program compiled for                                               ARCHER
 CP2K| Data directory path                     /work/y07/y07/cp2k/6.1.18464/data
 CP2K| Input file name                                        force-opt-qmmm.inp

 GLOBAL| Force Environment number                                              1
 GLOBAL| Basis set file name                                        BASIS_MOLOPT
 GLOBAL| Potential file name                                           POTENTIAL
 GLOBAL| MM Potential file name                                     MM_POTENTIAL
 GLOBAL| Coordinate file name                                      init_qmmm.pdb
 GLOBAL| Method name                                                        CP2K
 GLOBAL| Project name                                             force-opt-qmmm
 GLOBAL| Preferred FFT library                                             FFTW3
 GLOBAL| Preferred diagonalization lib.                                       SL
 GLOBAL| Run type                                                   ENERGY_FORCE
 GLOBAL| All-to-all communication in single precision                          F
 GLOBAL| FFTs using library dependent lengths                                  F
 GLOBAL| Global print level                                                  LOW
 GLOBAL| Total number of message passing processes                            24
 GLOBAL| Number of threads for this process                                    1
 GLOBAL| This output is from process                                           0
 GLOBAL| CPU model name :  Intel(R) Xeon(R) CPU E5-2697 v2 @ 2.70GHz

 MEMORY| system memory details [Kb]
 MEMORY|                        rank 0           min           max       average
 MEMORY| MemTotal             66072152      66072152      66072152      66072152
 MEMORY| MemFree              61868360      61868360      61868360      61868360
 MEMORY| Buffers                     0             0             0             0
 MEMORY| Cached                 272220        272220        272220        272220
 MEMORY| Slab                   263152        263152        263152        263152
 MEMORY| SReclaimable             8036          8036          8036          8036
 MEMORY| MemLikelyFree        62148616      62148616      62148616      62148616



                      ************* ******** ***********   
                     ************* **********************  
                     ****     **** ****      ***********   
                     ******** ****  *******     ****       
                     *******  ****   *******   ****        
                     ****     ****       ****  ****        
                     ****     **** **********  ****        
                      ****     **** ********    ****       
                     FRONTIERS IN SIMULATION TECHNOLOGY    
                                                           
                        C.J. Mundy, S. Balasubramanian,    
                     Ken Bagchi, J. Hutter, Ari Seitsonen  
                      IFW Kuo, T. Laino, J. VandeVondele   
                                 Version 1.0               

                                                           


 EWALD| Summation is done by:                                               SPME
 EWALD| Alpha parameter [       ANGSTROM^-1]                              0.4000
 EWALD| Real Space Cutoff [          ANGSTROM]                            8.4348
 EWALD| G-space max. Miller index                         80        80        80
 EWALD| Spline interpolation order                                             6

 FORCEFIELD| WARNING: A non Critical ForceField parameter is missing! CP2K GOES!
 FORCEFIELD| Non critical parameters are:Urey-Bradley,Torsions,Impropers, Opbends and 1-4
 FORCEFIELD| All missing parameters will not contribute to the potential energy!
 FORCEFIELD| Activate the print key FF_INFO to have a list of missing parameters

 CHARGE_INFO| Total Charge of the Classical System:                    -0.825808

 SPLINE_INFO| Generating 101926 splines for NONBONDED14 interactions 
              Due to 451 different atomic kinds
  ...10192  ...20384  ...30576  ...40768  ...50960  ...61152  ...71344  ...81536  ...91728  ...101920
 SPLINE_INFO| Number of unique splines computed:            301
 SPLINE_INFO| Done

 SPLINE_INFO| Generating 101926 splines for NONBONDED interactions 
              Due to 451 different atomic kinds
  ...10192  ...20384  ...30576  ...40768  ...50960  ...61152  ...71344  ...81536  ...91728  ...101920
 SPLINE_INFO| Number of unique splines computed:            301
 SPLINE_INFO| Done

 *******************************************************************************
 *******************************************************************************
 **                                                                           **
 **     #####                         ##              ##                      **
 **    ##   ##            ##          ##              ##                      **
 **   ##     ##                       ##            ######                    **
 **   ##     ##  ##   ##  ##   #####  ##  ##   ####   ##    #####    #####    **
 **   ##     ##  ##   ##  ##  ##      ## ##   ##      ##   ##   ##  ##   ##   **
 **   ##  ## ##  ##   ##  ##  ##      ####     ###    ##   ######   ######    **
 **    ##  ###   ##   ##  ##  ##      ## ##      ##   ##   ##       ##        **
 **     #######   #####   ##   #####  ##  ##  ####    ##    #####   ##        **
 **           ##                                                    ##        **
 **                                                                           **
 **                                                ... make the atoms dance   **
 **                                                                           **
 **            Copyright (C) by CP2K developers group (2000 - 2018)           **
 **                                                                           **
 *******************************************************************************


 TOTAL NUMBERS AND MAXIMUM NUMBERS

  Total number of            - Atomic kinds:                                   5
                             - Atoms:                                         68
                             - Shell sets:                                    68
                             - Shells:                                       274
                             - Primitive Cartesian functions:                476
                             - Cartesian basis functions:                    655
                             - Spherical basis functions:                    620

  Maximum angular momentum of- Orbital basis functions:                        2
                             - Local part of the GTH pseudopotential:          2
                             - Non-local part of the GTH pseudopotential:      0


 SCF PARAMETERS         Density guess:                                   RESTART
                        --------------------------------------------------------
                        max_scf:                                             300
                        max_scf_history:                                       0
                        max_diis:                                              4
                        --------------------------------------------------------
                        eps_scf:                                        1.00E-06
                        eps_scf_history:                                0.00E+00
                        eps_diis:                                       1.00E-01
                        eps_eigval:                                     1.00E-05
                        --------------------------------------------------------
                        level_shift [a.u.]:                                 0.00
                        --------------------------------------------------------
                        No outer SCF

 *******************************************************************************
 *******************************************************************************
 **                                                                           **
 **             #######  ##     ## ##     ## ##     ##                        **
 **            ##     ## ###   ### ###   ### ###   ###                        **
 **            ##     ## #### #### #### #### #### ####                        **
 **            ##     ## ## ### ## ## ### ## ## ### ##                        **
 **            ##  ## ## ##     ## ##     ## ##     ##                        **
 **            ##    ##  ##     ## ##     ## ##     ##  T.Laino and F.Mohamed **
 **             ##### ## ##     ## ##     ## ##     ##  2005 - 2015           **
 **                                                                           **
 **                                                     Calculation Started.. **
 *******************************************************************************
 *******************************************************************************

  Translating the system in order to center the QM fragment in the QM box.

 Number of electrons:                                                        180
 Number of occupied orbitals:                                                 90
 Number of molecular orbitals:                                                90

 Number of orbital functions:                                                620
 Number of independent orbital functions:                                    620

 Extrapolation method: initial_guess


 SCF WAVEFUNCTION OPTIMIZATION

  ----------------------------------- OT ---------------------------------------
  Minimizer      : DIIS                : direct inversion
                                         in the iterative subspace
                                         using   7 DIIS vectors
                                         safer DIIS on
  Preconditioner : FULL_ALL            : diagonalization, state selective
  Precond_solver : DEFAULT
  stepsize       :    0.15000000                  energy_gap     :    0.08000000
  eps_taylor     :   0.10000E-15                  max_taylor     :             4
  ----------------------------------- OT ---------------------------------------

  Step     Update method      Time    Convergence         Total energy    Change
  ------------------------------------------------------------------------------
  Decoupling Energy:                                               0.0370859641
  Recoupling Energy:                                              -0.0063743232
     1 OT DIIS     0.15E+00    4.4     0.00000002      -256.0303954185 -2.56E+02

  *** SCF run converged in     1 steps ***


  Electronic density on regular grids:       -179.9999999993        0.0000000007
  Core density on regular grids:              180.9999999999       -0.0000000001
  Total charge density on r-space grids:        1.0000000005
  Total charge density g-space grids:           1.0000000005

  Overlap energy of the core charge distribution:               0.00001951532734
  Self energy of the core charge distribution:               -615.71576003586028
  Core Hamiltonian energy:                                    191.69815567698339
  Hartree energy:                                             247.57404349796224
  Exchange-correlation energy:                                -79.63275610828913
  QM/MM Electrostatic energy:                                   0.04590203535935

  Total energy:                                              -256.03039541851706
  Decoupling Energy:                                               0.0370859530
  Recoupling Energy:                                              -0.0063743230

 ENERGY| Total FORCE_EVAL ( QMMM ) energy (a.u.):          -1095.757597130634622


 -------------------------------------------------------------------------------
 -                                                                             -
 -                                DBCSR STATISTICS                             -
 -                                                                             -
 -------------------------------------------------------------------------------
 COUNTER                                    TOTAL       BLAS       SMM       ACC
 flops    26 x    26 x    26                35152     100.0%      0.0%      0.0%
 flops    26 x    26 x    32                86528     100.0%      0.0%      0.0%
 flops    26 x    32 x    26                86528     100.0%      0.0%      0.0%
 flops    32 x    26 x    26                86528     100.0%      0.0%      0.0%
 flops    32 x    32 x    26               212992     100.0%      0.0%      0.0%
 flops    26 x    32 x    32               212992     100.0%      0.0%      0.0%
 flops    32 x    26 x    32               212992     100.0%      0.0%      0.0%
 flops     5 x    26 x    26               223080     100.0%      0.0%      0.0%
 flops    26 x    26 x    41               277160     100.0%      0.0%      0.0%
 flops    32 x    32 x    32               524288     100.0%      0.0%      0.0%
 flops    13 x    26 x    26               615160     100.0%      0.0%      0.0%
 flops     5 x    32 x    32               675840     100.0%      0.0%      0.0%
 flops    26 x    32 x    41               682240     100.0%      0.0%      0.0%
 flops    32 x    26 x    41               682240     100.0%      0.0%      0.0%
 flops    26 x    26 x    49               993720     100.0%      0.0%      0.0%
 flops   149 x    26 x    26              1007240     100.0%      0.0%      0.0%
 flops   152 x    26 x    26              1027520     100.0%      0.0%      0.0%
 flops   157 x    26 x    26              1061320     100.0%      0.0%      0.0%
 flops   162 x    26 x    26              1095120     100.0%      0.0%      0.0%
 flops   149 x    26 x    41              1270672     100.0%      0.0%      0.0%
 flops   152 x    26 x    41              1296256     100.0%      0.0%      0.0%
 flops   157 x    26 x    41              1338896     100.0%      0.0%      0.0%
 flops   162 x    26 x    41              1381536     100.0%      0.0%      0.0%
 flops    32 x    32 x    41              1679360     100.0%      0.0%      0.0%
 flops    13 x    32 x    32              1863680     100.0%      0.0%      0.0%
 flops     5 x     5 x    26              2187900     100.0%      0.0%      0.0%
 flops    26 x    32 x    49              2446080     100.0%      0.0%      0.0%
 flops    32 x    26 x    49              2446080     100.0%      0.0%      0.0%
 flops   149 x    32 x    26              2479360     100.0%      0.0%      0.0%
 flops   149 x    26 x    32              2479360     100.0%      0.0%      0.0%
 flops   152 x    26 x    32              2529280     100.0%      0.0%      0.0%
 flops   152 x    32 x    26              2529280     100.0%      0.0%      0.0%
 flops   157 x    26 x    32              2612480     100.0%      0.0%      0.0%
 flops   157 x    32 x    26              2612480     100.0%      0.0%      0.0%
 flops   162 x    26 x    32              2695680     100.0%      0.0%      0.0%
 flops   162 x    32 x    26              2695680     100.0%      0.0%      0.0%
 flops    26 x    26 x    54              2920320     100.0%      0.0%      0.0%
 flops   149 x    32 x    41              3127808     100.0%      0.0%      0.0%
 flops   152 x    32 x    41              3190784     100.0%      0.0%      0.0%
 flops   157 x    32 x    41              3295744     100.0%      0.0%      0.0%
 flops   162 x    32 x    41              3400704     100.0%      0.0%      0.0%
 flops   149 x    26 x    49              4555824     100.0%      0.0%      0.0%
 flops   152 x    26 x    49              4647552     100.0%      0.0%      0.0%
 flops   157 x    26 x    49              4800432     100.0%      0.0%      0.0%
 flops   162 x    26 x    49              4953312     100.0%      0.0%      0.0%
 flops     5 x     5 x    32              5385600     100.0%      0.0%      0.0%
 flops    13 x     5 x    26              5850780     100.0%      0.0%      0.0%
 flops     5 x    13 x    26              5860920     100.0%      0.0%      0.0%
 flops    32 x    32 x    49              6021120     100.0%      0.0%      0.0%
 flops   149 x    32 x    32              6103040     100.0%      0.0%      0.0%
 flops   152 x    32 x    32              6225920     100.0%      0.0%      0.0%
 flops   157 x    32 x    32              6430720     100.0%      0.0%      0.0%
 flops   162 x    32 x    32              6635520     100.0%      0.0%      0.0%
 flops    26 x    32 x    54              7188480     100.0%      0.0%      0.0%
 flops    32 x    26 x    54              7188480     100.0%      0.0%      0.0%
 flops   149 x    32 x    49             11214336     100.0%      0.0%      0.0%
 flops   152 x    32 x    49             11440128     100.0%      0.0%      0.0%
 flops   157 x    32 x    49             11816448     100.0%      0.0%      0.0%
 flops   162 x    32 x    49             12192768     100.0%      0.0%      0.0%
 flops     5 x    26 x     5             12741300     100.0%      0.0%      0.0%
 flops   149 x    26 x    54             13388544     100.0%      0.0%      0.0%
 flops   152 x    26 x    54             13658112     100.0%      0.0%      0.0%
 flops   157 x    26 x    54             14107392     100.0%      0.0%      0.0%
 flops    13 x     5 x    32             14401920     100.0%      0.0%      0.0%
 flops     5 x    13 x    32             14426880     100.0%      0.0%      0.0%
 flops   162 x    26 x    54             14556672     100.0%      0.0%      0.0%
 flops    13 x    13 x    26             16609320     100.0%      0.0%      0.0%
 flops    32 x    32 x    54             17694720     100.0%      0.0%      0.0%
 flops     5 x    32 x     5             31363200     100.0%      0.0%      0.0%
 flops   149 x    32 x    54             32956416     100.0%      0.0%      0.0%
 flops   152 x    32 x    54             33619968     100.0%      0.0%      0.0%
 flops   157 x    32 x    54             34725888     100.0%      0.0%      0.0%
 flops     5 x    26 x    13             35135100     100.0%      0.0%      0.0%
 flops    13 x    26 x     5             35135100     100.0%      0.0%      0.0%
 flops   162 x    32 x    54             35831808     100.0%      0.0%      0.0%
 flops    13 x    13 x    32             40884480     100.0%      0.0%      0.0%
 flops    13 x    32 x     5             86486400     100.0%      0.0%      0.0%
 flops     5 x    32 x    13             86486400     100.0%      0.0%      0.0%
 flops    13 x    26 x    13             96887700     100.0%      0.0%      0.0%
 flops    13 x    32 x    13            238492800     100.0%      0.0%      0.0%
 flops inhomo. stacks                           0       0.0%      0.0%      0.0%
 flops total                         1.110380E+09     100.0%      0.0%      0.0%
 flops max/rank                     99.688196E+06     100.0%      0.0%      0.0%
 matmuls inhomo. stacks                         0       0.0%      0.0%      0.0%
 matmuls total                             147489     100.0%      0.0%      0.0%
 number of processed stacks                  7395     100.0%      0.0%      0.0%
 average stack size                                    19.9       0.0       0.0
 marketing flops                     1.229058E+09
 -------------------------------------------------------------------------------
 # multiplications                             29
 max memory usage/rank               1.610310E+09
 # max total images/rank                        3
 # max 3D layers                                1
 # MPI messages exchanged                   17400
 MPI messages size (bytes):
  total size                       280.384960E+06
  min size                           0.000000E+00
  max size                          69.984000E+03
  average size                      16.114078E+03
 MPI breakdown and total messages size (bytes):
             size <=      128                9000                        0
       128 < size <=     8192                 330                  2376960
      8192 < size <=    32768                4545                 62318880
     32768 < size <=   131072                3525                215689120
    131072 < size <=  4194304                   0                        0
   4194304 < size <= 16777216                   0                        0
  16777216 < size                               0                        0
 -------------------------------------------------------------------------------

 *** WARNING in dbcsr/mm/dbcsr_mm.F:268 :: Using a non-square number of ***
 *** MPI ranks might lead to poor performance.                          ***
 *** Used ranks: 24                                                     ***
 *** Suggested: 25 49                                                   ***

 -------------------------------------------------------------------------------

 MEMORY| Estimated peak process memory [MiB]                                1568

 -------------------------------------------------------------------------------
 -                                                                             -
 -                         MESSAGE PASSING PERFORMANCE                         -
 -                                                                             -
 -------------------------------------------------------------------------------

 ROUTINE             CALLS      AVE VOLUME [Bytes]
 MP_Group               23
 MP_Bcast             6726               10946229.
 MP_Allreduce          586                 993242.
 MP_Sync                 9
 MP_Alltoall           384                5562893.
 MP_ISendRecv          184                 115200.
 MP_Wait              2451
 MP_comm_split           3
 MP_ISend             1967                 141802.
 MP_IRecv             1972                 140879.
 MP_Recv                 5                  74400.
 MP_Memory            2624
 -------------------------------------------------------------------------------


 -------------------------------------------------------------------------------
 -                                                                             -
 -                           R E F E R E N C E S                               -
 -                                                                             -
 -------------------------------------------------------------------------------
 
 CP2K version 6.1, the CP2K developers group (2018).
 CP2K is freely available from https://www.cp2k.org/ .

 Schuett, Ole; Messmer, Peter; Hutter, Juerg; VandeVondele, Joost. 
 Electronic Structure Calculations on Graphics Processing Units, John Wiley & Sons, Ltd, 173-190 (2016). 
 GPU-Accelerated Sparse Matrix-Matrix Multiplication for Linear Scaling Density Functional Theory.
 http://dx.doi.org/10.1002/9781118670712.ch8


 Borstnik, U; VandeVondele, J; Weber, V; Hutter, J. 
 PARALLEL COMPUTING, 40 (5-6), 47-58 (2014). 
 Sparse matrix multiplication: The distributed block-compressed sparse
 row library.
 http://dx.doi.org/10.1016/j.parco.2014.03.012


 Hutter, J; Iannuzzi, M; Schiffmann, F; VandeVondele, J. 
 WILEY INTERDISCIPLINARY REVIEWS-COMPUTATIONAL MOLECULAR SCIENCE, 4 (1), 15-25 (2014). 
 CP2K: atomistic simulations of condensed matter systems.
 http://dx.doi.org/10.1002/wcms.1159


 VandeVondele, J; Hutter, J. 
 JOURNAL OF CHEMICAL PHYSICS, 127 (11), 114105 (2007). 
 Gaussian basis sets for accurate calculations on molecular systems in
 gas and condensed phases.
 http://dx.doi.org/10.1063/1.2770708


 Laino, T; Mohamed, F; Laio, A; Parrinello, M. 
 JOURNAL OF CHEMICAL THEORY AND COMPUTATION, 2 (5), 1370-1378 (2006). 
 An efficient linear-scaling electrostatic coupling for treating
 periodic boundary conditions in QM/MM simulations.
 http://dx.doi.org/10.1021/ct6001169


 Laino, T; Mohamed, F; Laio, A; Parrinello, M. 
 JOURNAL OF CHEMICAL THEORY AND COMPUTATION, 1 (6), 1176-1184 (2005). 
 An efficient real space multigrid QM/MM electrostatic coupling.
 http://dx.doi.org/10.1021/ct050123f


 Krack, M. 
 THEORETICAL CHEMISTRY ACCOUNTS, 114 (1-3), 145-152 (2005). 
 Pseudopotentials for H to Kr optimized for gradient-corrected
 exchange-correlation functionals.
 http://dx.doi.org/10.1007/s00214-005-0655-y


 VandeVondele, J; Krack, M; Mohamed, F; Parrinello, M; Chassaing, T;
 Hutter, J. COMPUTER PHYSICS COMMUNICATIONS, 167 (2), 103-128 (2005). 
 QUICKSTEP: Fast and accurate density functional calculations using a
 mixed Gaussian and plane waves approach.
 http://dx.doi.org/10.1016/j.cpc.2004.12.014


 Frigo, M; Johnson, SG. 
 PROCEEDINGS OF THE IEEE, 93 (2), 216-231 (2005). 
 The design and implementation of FFTW3.
 http://dx.doi.org/10.1109/JPROC.2004.840301


 VandeVondele, J; Hutter, J. 
 JOURNAL OF CHEMICAL PHYSICS, 118 (10), 4365-4369 (2003). 
 An efficient orbital transformation method for electronic structure
 calculations.
 http://dx.doi.org/10.1063/1.1543154


 Hartwigsen, C; Goedecker, S; Hutter, J. 
 PHYSICAL REVIEW B, 58 (7), 3641-3662 (1998). 
 Relativistic separable dual-space Gaussian pseudopotentials from H to Rn.
 http://dx.doi.org/10.1103/PhysRevB.58.3641


 Lippert, G; Hutter, J; Parrinello, M. 
 MOLECULAR PHYSICS, 92 (3), 477-487 (1997). 
 A hybrid Gaussian and plane wave density functional scheme.
 http://dx.doi.org/10.1080/002689797170220


 Perdew, JP; Burke, K; Ernzerhof, M. 
 PHYSICAL REVIEW LETTERS, 77 (18), 3865-3868 (1996). 
 Generalized gradient approximation made simple.
 http://dx.doi.org/10.1103/PhysRevLett.77.3865


 Goedecker, S; Teter, M; Hutter, J. 
 PHYSICAL REVIEW B, 54 (3), 1703-1710 (1996). 
 Separable dual-space Gaussian pseudopotentials.
 http://dx.doi.org/10.1103/PhysRevB.54.1703


 ESSMANN, U; PERERA, L; BERKOWITZ, ML; DARDEN, T; LEE, H; PEDERSEN, LG. 
 JOURNAL OF CHEMICAL PHYSICS, 103 (19), 8577-8593 (1995). 
 A SMOOTH PARTICLE MESH EWALD METHOD.
 http://dx.doi.org/10.1063/1.470117


 BLOCHL, PE. 
 JOURNAL OF CHEMICAL PHYSICS, 103 (17), 7422-7428 (1995). 
 ELECTROSTATIC DECOUPLING OF PERIODIC IMAGES OF PLANE-WAVE-EXPANDED
 DENSITIES AND DERIVED ATOMIC POINT CHARGES.
 http://dx.doi.org/10.1063/1.470314


 -------------------------------------------------------------------------------
 -                                                                             -
 -                                T I M I N G                                  -
 -                                                                             -
 -------------------------------------------------------------------------------
 SUBROUTINE                       CALLS  ASD         SELF TIME        TOTAL TIME
                                MAXIMUM       AVERAGE  MAXIMUM  AVERAGE  MAXIMUM
 CP2K                                 1  1.0    0.599    0.663  203.505  203.508
 qmmm_forces                          1  2.0    0.019    0.023   76.480   76.481
 qmmm_forces_with_gaussian            1  3.0    0.021    0.022   75.986   76.182
 qmmm_force_with_gaussian_low         1  4.0    0.000    0.000   67.842   67.972
 qmmm_env_create                      1  2.0   14.938   15.147   64.892   64.905
 qmmm_forces_gaussian_low_R           1  5.0    0.000    0.000   60.140   60.180
 qmmm_forces_with_gaussian_LG         1  6.0   60.140   60.180   60.140   60.180
 qmmm_el_coupling                     1  2.0    0.000    0.000   46.069   46.163
 qmmm_elec_with_gaussian              1  3.0    0.008    0.012   46.063   46.157
 fist_init                            1  3.0    0.000    0.001   44.562   44.562
 qmmm_elec_with_gaussian_low          1  4.0    0.000    0.000   39.051   39.193
 qmmm_elec_gaussian_low_R             1  5.0    0.000    0.000   31.487   31.509
 qmmm_elec_with_gaussian_LG           1  6.0   31.487   31.509   31.487   31.509
 force_field_control                  1  4.0    0.000    0.001   25.776   25.833
 rdparm_amber_8                       2  6.5   17.607   17.672   20.654   20.671
 topology_control                     1  4.0    0.000    0.000   18.699   18.711
 force_field_pack                     1  5.0    0.018    0.020   16.395   16.464
 qs_forces                            1  2.0    0.000    0.000   12.469   12.469
 connectivity_control                 2  4.0    0.000    0.000   11.628   11.639
 read_connectivity_amber              1  6.0    0.000    0.000   11.409   11.415
 read_force_field_amber               1  5.0    0.015    0.016    9.260    9.276
 force_field_pack_splines             2  6.0    0.018    0.020    8.771    8.829
 get_nonbond_storage                  2  7.0    0.275    0.285    8.398    8.463
 set_potparm_index                  602  8.0    0.377    0.385    8.123    8.211
 qs_energies                          1  3.0    0.000    0.000    8.129    8.130
 rebuild_ks_matrix                    2  5.5    0.000    0.000    8.099    8.100
 qs_ks_build_kohn_sham_matrix         2  6.5    0.001    0.001    8.099    8.100
 init_genpot                        604  9.0    7.769    7.847    7.769    7.847
 qmmm_forces_gaussian_low_G           1  5.0    7.702    7.813    7.702    7.813
 pw_restrict_s3                       3  4.0    5.624    5.692    7.648    7.759
 qmmm_elec_gaussian_low_G             1  5.0    7.564    7.707    7.564    7.707
 pw_transfer                         51  8.5    0.020    0.023    6.296    6.658
 fft_wrap_pw1pw2                     40  9.9    0.001    0.001    6.183    6.547
 fft_wrap_pw1pw2_200                 24 11.3    0.482    0.500    6.067    6.415
 scf_env_do_scf                       1  4.0    0.000    0.000    6.285    6.285
 qmmm_elec_with_gaussian:spline       1  4.0    0.000    0.000    5.791    5.887
 pw_prolongate_s3                     3  5.0    4.099    4.166    5.791    5.887
 mp_sum_dm3                           8  4.0    4.899    5.206    4.899    5.206
 fft3d_ps                            40 11.9    2.522    2.826    4.673    5.086
 qs_vxc_create                        2  7.5    0.000    0.000    4.742    4.742
 xc_vxc_pw_create                     2  8.5    0.029    0.038    4.742    4.742
 topology_coordinate_pack             2  4.0    0.000    0.001    4.587    4.590
 eval_pw_TabLR                        3  3.0    0.796    4.337    4.440    4.445
 init_scf_loop                        1  5.0    0.000    0.000    4.345    4.345
 topology_coordinate_pack_11          2  5.0    4.324    4.326    4.324    4.326
 qs_ks_update_qs_env_forces           1  3.0    0.000    0.000    4.218    4.219
 -------------------------------------------------------------------------------

 The number of warnings for this run is : 1
 
 -------------------------------------------------------------------------------
  **** **** ******  **  PROGRAM ENDED AT                 2019-07-23 15:52:52.135
 ***** ** ***  *** **   PROGRAM RAN ON                                  nid04360
 **    ****   ******    PROGRAM RAN BY                                   aproeme
 ***** **    ** ** **   PROGRAM PROCESS ID                                 20037
  **** **  *******  **  PROGRAM STOPPED IN /fs3/z01/z01/aproeme/bioexcel/qmmm-JY
                                           U/profile/1node_24procs
Application 36716112 resources: utime ~4838s, stime ~59s, Rss ~1605316, inblocks ~332074, outblocks ~485599
